TITLE = " Poseii Flow " 
 VARIABLES="x","y","u","v","p"
ZONE T="33374 " I =   31, J =   31 F = POINT
 0.0000 -0.0050   0.000000   0.000000   0.001611
 0.0033 -0.0050   0.000000   0.000000   0.002053
 0.0067 -0.0050   0.000000   0.000000   0.001924
 0.0100 -0.0050   0.000000   0.000000   0.001854
 0.0133 -0.0050   0.000000   0.000000   0.001783
 0.0167 -0.0050   0.000000   0.000000   0.001713
 0.0200 -0.0050   0.000000   0.000000   0.001642
 0.0233 -0.0050   0.000000   0.000000   0.001571
 0.0267 -0.0050   0.000000   0.000000   0.001500
 0.0300 -0.0050   0.000000   0.000000   0.001430
 0.0333 -0.0050   0.000000   0.000000   0.001360
 0.0367 -0.0050   0.000000   0.000000   0.001289
 0.0400 -0.0050   0.000000   0.000000   0.001219
 0.0433 -0.0050   0.000000   0.000000   0.001149
 0.0467 -0.0050   0.000000   0.000000   0.001079
 0.0500 -0.0050   0.000000   0.000000   0.001010
 0.0533 -0.0050   0.000000   0.000000   0.000940
 0.0567 -0.0050   0.000000   0.000000   0.000870
 0.0600 -0.0050   0.000000   0.000000   0.000800
 0.0633 -0.0050   0.000000   0.000000   0.000731
 0.0667 -0.0050   0.000000   0.000000   0.000661
 0.0700 -0.0050   0.000000   0.000000   0.000592
 0.0733 -0.0050   0.000000   0.000000   0.000522
 0.0767 -0.0050   0.000000   0.000000   0.000453
 0.0800 -0.0050   0.000000   0.000000   0.000384
 0.0833 -0.0050   0.000000   0.000000   0.000314
 0.0867 -0.0050   0.000000   0.000000   0.000245
 0.0900 -0.0050   0.000000   0.000000   0.000175
 0.0933 -0.0050   0.000000   0.000000   0.000106
 0.0967 -0.0050   0.000000   0.000000   0.000036
 0.1000 -0.0050   0.000000   0.000000   0.000001
 0.0000 -0.0047   0.010000   0.000429   0.002140
 0.0033 -0.0047   0.002566   0.000448   0.002050
 0.0067 -0.0047   0.001971   0.000019   0.001925
 0.0100 -0.0047   0.001914   0.000000   0.001854
 0.0133 -0.0047   0.001906  -0.000001   0.001783
 0.0167 -0.0047   0.001902  -0.000001   0.001713
 0.0200 -0.0047   0.001898  -0.000001   0.001642
 0.0233 -0.0047   0.001894  -0.000001   0.001571
 0.0267 -0.0047   0.001890  -0.000001   0.001500
 0.0300 -0.0047   0.001886  -0.000001   0.001430
 0.0333 -0.0047   0.001882  -0.000001   0.001360
 0.0367 -0.0047   0.001878  -0.000001   0.001289
 0.0400 -0.0047   0.001875  -0.000001   0.001219
 0.0433 -0.0047   0.001872  -0.000001   0.001149
 0.0467 -0.0047   0.001868  -0.000001   0.001079
 0.0500 -0.0047   0.001866  -0.000001   0.001010
 0.0533 -0.0047   0.001863  -0.000001   0.000940
 0.0567 -0.0047   0.001860  -0.000001   0.000870
 0.0600 -0.0047   0.001858  -0.000001   0.000800
 0.0633 -0.0047   0.001856  -0.000000   0.000731
 0.0667 -0.0047   0.001854  -0.000000   0.000661
 0.0700 -0.0047   0.001852  -0.000000   0.000592
 0.0733 -0.0047   0.001851  -0.000000   0.000522
 0.0767 -0.0047   0.001849  -0.000000   0.000453
 0.0800 -0.0047   0.001848  -0.000000   0.000384
 0.0833 -0.0047   0.001847  -0.000000   0.000314
 0.0867 -0.0047   0.001847  -0.000000   0.000245
 0.0900 -0.0047   0.001846  -0.000000   0.000175
 0.0933 -0.0047   0.001846  -0.000000   0.000106
 0.0967 -0.0047   0.001846   0.000000   0.000036
 0.1000 -0.0047   0.001846   0.000000   0.000001
 0.0000 -0.0043   0.010000   0.000741   0.002126
 0.0033 -0.0043   0.004702   0.000799   0.002045
 0.0067 -0.0043   0.003805   0.000061   0.001926
 0.0100 -0.0043   0.003699   0.000003   0.001854
 0.0133 -0.0043   0.003682  -0.000002   0.001783
 0.0167 -0.0043   0.003674  -0.000003   0.001713
 0.0200 -0.0043   0.003666  -0.000003   0.001642
 0.0233 -0.0043   0.003658  -0.000003   0.001571
 0.0267 -0.0043   0.003650  -0.000003   0.001500
 0.0300 -0.0043   0.003642  -0.000002   0.001430
 0.0333 -0.0043   0.003635  -0.000002   0.001360
 0.0367 -0.0043   0.003628  -0.000002   0.001289
 0.0400 -0.0043   0.003621  -0.000002   0.001219
 0.0433 -0.0043   0.003615  -0.000002   0.001149
 0.0467 -0.0043   0.003609  -0.000002   0.001079
 0.0500 -0.0043   0.003603  -0.000002   0.001010
 0.0533 -0.0043   0.003598  -0.000002   0.000940
 0.0567 -0.0043   0.003593  -0.000002   0.000870
 0.0600 -0.0043   0.003588  -0.000001   0.000800
 0.0633 -0.0043   0.003584  -0.000001   0.000731
 0.0667 -0.0043   0.003580  -0.000001   0.000661
 0.0700 -0.0043   0.003577  -0.000001   0.000592
 0.0733 -0.0043   0.003574  -0.000001   0.000522
 0.0767 -0.0043   0.003571  -0.000001   0.000453
 0.0800 -0.0043   0.003569  -0.000001   0.000384
 0.0833 -0.0043   0.003567  -0.000001   0.000314
 0.0867 -0.0043   0.003566  -0.000000   0.000245
 0.0900 -0.0043   0.003565  -0.000000   0.000175
 0.0933 -0.0043   0.003564  -0.000000   0.000106
 0.0967 -0.0043   0.003564  -0.000000   0.000036
 0.1000 -0.0043   0.003564  -0.000000   0.000001
 0.0000 -0.0040   0.010000   0.000957   0.002113
 0.0033 -0.0040   0.006480   0.001062   0.002039
 0.0067 -0.0040   0.005493   0.000115   0.001927
 0.0100 -0.0040   0.005352   0.000008   0.001854
 0.0133 -0.0040   0.005328  -0.000003   0.001783
 0.0167 -0.0040   0.005316  -0.000004   0.001713
 0.0200 -0.0040   0.005304  -0.000004   0.001642
 0.0233 -0.0040   0.005292  -0.000004   0.001571
 0.0267 -0.0040   0.005281  -0.000004   0.001500
 0.0300 -0.0040   0.005270  -0.000004   0.001430
 0.0333 -0.0040   0.005259  -0.000004   0.001360
 0.0367 -0.0040   0.005249  -0.000003   0.001289
 0.0400 -0.0040   0.005239  -0.000003   0.001219
 0.0433 -0.0040   0.005230  -0.000003   0.001149
 0.0467 -0.0040   0.005221  -0.000003   0.001079
 0.0500 -0.0040   0.005213  -0.000003   0.001010
 0.0533 -0.0040   0.005205  -0.000003   0.000940
 0.0567 -0.0040   0.005198  -0.000002   0.000870
 0.0600 -0.0040   0.005191  -0.000002   0.000800
 0.0633 -0.0040   0.005185  -0.000002   0.000731
 0.0667 -0.0040   0.005179  -0.000002   0.000661
 0.0700 -0.0040   0.005174  -0.000002   0.000592
 0.0733 -0.0040   0.005170  -0.000001   0.000522
 0.0767 -0.0040   0.005166  -0.000001   0.000453
 0.0800 -0.0040   0.005163  -0.000001   0.000384
 0.0833 -0.0040   0.005160  -0.000001   0.000314
 0.0867 -0.0040   0.005158  -0.000001   0.000245
 0.0900 -0.0040   0.005157  -0.000000   0.000175
 0.0933 -0.0040   0.005156  -0.000000   0.000106
 0.0967 -0.0040   0.005155   0.000000   0.000036
 0.1000 -0.0040   0.005155   0.000000   0.000001
 0.0000 -0.0037   0.010000   0.001091   0.002102
 0.0033 -0.0037   0.007960   0.001245   0.002034
 0.0067 -0.0037   0.007032   0.000169   0.001928
 0.0100 -0.0037   0.006874   0.000014   0.001855
 0.0133 -0.0037   0.006843  -0.000004   0.001784
 0.0167 -0.0037   0.006827  -0.000005   0.001713
 0.0200 -0.0037   0.006812  -0.000005   0.001642
 0.0233 -0.0037   0.006796  -0.000005   0.001571
 0.0267 -0.0037   0.006782  -0.000005   0.001500
 0.0300 -0.0037   0.006767  -0.000005   0.001430
 0.0333 -0.0037   0.006754  -0.000004   0.001360
 0.0367 -0.0037   0.006741  -0.000004   0.001289
 0.0400 -0.0037   0.006728  -0.000004   0.001219
 0.0433 -0.0037   0.006716  -0.000004   0.001149
 0.0467 -0.0037   0.006705  -0.000004   0.001079
 0.0500 -0.0037   0.006694  -0.000003   0.001010
 0.0533 -0.0037   0.006684  -0.000003   0.000940
 0.0567 -0.0037   0.006674  -0.000003   0.000870
 0.0600 -0.0037   0.006666  -0.000003   0.000800
 0.0633 -0.0037   0.006658  -0.000003   0.000731
 0.0667 -0.0037   0.006651  -0.000002   0.000661
 0.0700 -0.0037   0.006644  -0.000002   0.000592
 0.0733 -0.0037   0.006638  -0.000002   0.000522
 0.0767 -0.0037   0.006633  -0.000002   0.000453
 0.0800 -0.0037   0.006629  -0.000001   0.000384
 0.0833 -0.0037   0.006626  -0.000001   0.000314
 0.0867 -0.0037   0.006623  -0.000001   0.000245
 0.0900 -0.0037   0.006621  -0.000001   0.000175
 0.0933 -0.0037   0.006620  -0.000000   0.000106
 0.0967 -0.0037   0.006619  -0.000000   0.000036
 0.1000 -0.0037   0.006619  -0.000000   0.000001
 0.0000 -0.0033   0.010000   0.001158   0.002092
 0.0033 -0.0033   0.009188   0.001354   0.002030
 0.0067 -0.0033   0.008420   0.000218   0.001929
 0.0100 -0.0033   0.008263   0.000021   0.001855
 0.0133 -0.0033   0.008228  -0.000004   0.001784
 0.0167 -0.0033   0.008208  -0.000006   0.001713
 0.0200 -0.0033   0.008189  -0.000006   0.001642
 0.0233 -0.0033   0.008171  -0.000005   0.001571
 0.0267 -0.0033   0.008153  -0.000005   0.001500
 0.0300 -0.0033   0.008136  -0.000005   0.001430
 0.0333 -0.0033   0.008119  -0.000005   0.001360
 0.0367 -0.0033   0.008103  -0.000005   0.001289
 0.0400 -0.0033   0.008088  -0.000005   0.001219
 0.0433 -0.0033   0.008073  -0.000004   0.001149
 0.0467 -0.0033   0.008060  -0.000004   0.001079
 0.0500 -0.0033   0.008047  -0.000004   0.001010
 0.0533 -0.0033   0.008035  -0.000004   0.000940
 0.0567 -0.0033   0.008023  -0.000003   0.000870
 0.0600 -0.0033   0.008013  -0.000003   0.000800
 0.0633 -0.0033   0.008003  -0.000003   0.000731
 0.0667 -0.0033   0.007994  -0.000003   0.000661
 0.0700 -0.0033   0.007987  -0.000002   0.000592
 0.0733 -0.0033   0.007980  -0.000002   0.000522
 0.0767 -0.0033   0.007973  -0.000002   0.000453
 0.0800 -0.0033   0.007968  -0.000002   0.000384
 0.0833 -0.0033   0.007964  -0.000001   0.000314
 0.0867 -0.0033   0.007961  -0.000001   0.000245
 0.0900 -0.0033   0.007958  -0.000001   0.000175
 0.0933 -0.0033   0.007957  -0.000000   0.000106
 0.0967 -0.0033   0.007956  -0.000000   0.000036
 0.1000 -0.0033   0.007956   0.000000   0.000001
 0.0000 -0.0030   0.010000   0.001169   0.002084
 0.0033 -0.0030   0.010202   0.001397   0.002026
 0.0067 -0.0030   0.009658   0.000256   0.001929
 0.0100 -0.0030   0.009519   0.000028   0.001855
 0.0133 -0.0030   0.009481  -0.000003   0.001784
 0.0167 -0.0030   0.009457  -0.000006   0.001713
 0.0200 -0.0030   0.009436  -0.000006   0.001642
 0.0233 -0.0030   0.009415  -0.000006   0.001571
 0.0267 -0.0030   0.009394  -0.000006   0.001500
 0.0300 -0.0030   0.009374  -0.000005   0.001430
 0.0333 -0.0030   0.009355  -0.000005   0.001360
 0.0367 -0.0030   0.009337  -0.000005   0.001289
 0.0400 -0.0030   0.009319  -0.000005   0.001219
 0.0433 -0.0030   0.009302  -0.000005   0.001149
 0.0467 -0.0030   0.009286  -0.000004   0.001079
 0.0500 -0.0030   0.009271  -0.000004   0.001010
 0.0533 -0.0030   0.009257  -0.000004   0.000940
 0.0567 -0.0030   0.009244  -0.000004   0.000870
 0.0600 -0.0030   0.009232  -0.000003   0.000800
 0.0633 -0.0030   0.009221  -0.000003   0.000731
 0.0667 -0.0030   0.009210  -0.000003   0.000661
 0.0700 -0.0030   0.009201  -0.000002   0.000592
 0.0733 -0.0030   0.009193  -0.000002   0.000522
 0.0767 -0.0030   0.009186  -0.000002   0.000453
 0.0800 -0.0030   0.009180  -0.000002   0.000384
 0.0833 -0.0030   0.009175  -0.000001   0.000314
 0.0867 -0.0030   0.009171  -0.000001   0.000245
 0.0900 -0.0030   0.009168  -0.000001   0.000175
 0.0933 -0.0030   0.009166  -0.000001   0.000106
 0.0967 -0.0030   0.009165  -0.000000   0.000036
 0.1000 -0.0030   0.009165  -0.000000   0.000001
 0.0000 -0.0027   0.010000   0.001135   0.002077
 0.0033 -0.0027   0.011036   0.001383   0.002023
 0.0067 -0.0027   0.010748   0.000281   0.001930
 0.0100 -0.0027   0.010640   0.000034   0.001855
 0.0133 -0.0027   0.010602  -0.000002   0.001784
 0.0167 -0.0027   0.010576  -0.000006   0.001713
 0.0200 -0.0027   0.010552  -0.000006   0.001642
 0.0233 -0.0027   0.010528  -0.000006   0.001571
 0.0267 -0.0027   0.010505  -0.000006   0.001500
 0.0300 -0.0027   0.010483  -0.000005   0.001430
 0.0333 -0.0027   0.010461  -0.000005   0.001360
 0.0367 -0.0027   0.010441  -0.000005   0.001289
 0.0400 -0.0027   0.010421  -0.000005   0.001219
 0.0433 -0.0027   0.010402  -0.000005   0.001149
 0.0467 -0.0027   0.010384  -0.000004   0.001079
 0.0500 -0.0027   0.010367  -0.000004   0.001010
 0.0533 -0.0027   0.010351  -0.000004   0.000940
 0.0567 -0.0027   0.010337  -0.000004   0.000870
 0.0600 -0.0027   0.010323  -0.000003   0.000800
 0.0633 -0.0027   0.010310  -0.000003   0.000731
 0.0667 -0.0027   0.010299  -0.000003   0.000661
 0.0700 -0.0027   0.010288  -0.000003   0.000592
 0.0733 -0.0027   0.010279  -0.000002   0.000522
 0.0767 -0.0027   0.010271  -0.000002   0.000453
 0.0800 -0.0027   0.010264  -0.000002   0.000384
 0.0833 -0.0027   0.010259  -0.000001   0.000314
 0.0867 -0.0027   0.010254  -0.000001   0.000245
 0.0900 -0.0027   0.010251  -0.000001   0.000175
 0.0933 -0.0027   0.010248  -0.000001   0.000106
 0.0967 -0.0027   0.010247  -0.000000   0.000036
 0.1000 -0.0027   0.010247   0.000000   0.000001
 0.0000 -0.0023   0.010000   0.001063   0.002072
 0.0033 -0.0023   0.011716   0.001317   0.002021
 0.0067 -0.0023   0.011695   0.000291   0.001930
 0.0100 -0.0023   0.011628   0.000038   0.001855
 0.0133 -0.0023   0.011592  -0.000002   0.001784
 0.0167 -0.0023   0.011564  -0.000006   0.001713
 0.0200 -0.0023   0.011537  -0.000006   0.001642
 0.0233 -0.0023   0.011511  -0.000006   0.001571
 0.0267 -0.0023   0.011486  -0.000005   0.001500
 0.0300 -0.0023   0.011461  -0.000005   0.001430
 0.0333 -0.0023   0.011438  -0.000005   0.001360
 0.0367 -0.0023   0.011415  -0.000005   0.001289
 0.0400 -0.0023   0.011393  -0.000005   0.001219
 0.0433 -0.0023   0.011373  -0.000004   0.001149
 0.0467 -0.0023   0.011353  -0.000004   0.001079
 0.0500 -0.0023   0.011334  -0.000004   0.001010
 0.0533 -0.0023   0.011317  -0.000004   0.000940
 0.0567 -0.0023   0.011301  -0.000003   0.000870
 0.0600 -0.0023   0.011286  -0.000003   0.000801
 0.0633 -0.0023   0.011272  -0.000003   0.000731
 0.0667 -0.0023   0.011259  -0.000003   0.000661
 0.0700 -0.0023   0.011248  -0.000002   0.000592
 0.0733 -0.0023   0.011238  -0.000002   0.000522
 0.0767 -0.0023   0.011229  -0.000002   0.000453
 0.0800 -0.0023   0.011221  -0.000002   0.000384
 0.0833 -0.0023   0.011215  -0.000001   0.000314
 0.0867 -0.0023   0.011210  -0.000001   0.000245
 0.0900 -0.0023   0.011206  -0.000001   0.000175
 0.0933 -0.0023   0.011203  -0.000001   0.000106
 0.0967 -0.0023   0.011202  -0.000000   0.000036
 0.1000 -0.0023   0.011202  -0.000000   0.000001
 0.0000 -0.0020   0.010000   0.000961   0.002067
 0.0033 -0.0020   0.012263   0.001208   0.002019
 0.0067 -0.0020   0.012503   0.000285   0.001931
 0.0100 -0.0020   0.012483   0.000039   0.001855
 0.0133 -0.0020   0.012450  -0.000001   0.001784
 0.0167 -0.0020   0.012420  -0.000005   0.001713
 0.0200 -0.0020   0.012391  -0.000005   0.001642
 0.0233 -0.0020   0.012363  -0.000005   0.001571
 0.0267 -0.0020   0.012336  -0.000005   0.001501
 0.0300 -0.0020   0.012310  -0.000005   0.001430
 0.0333 -0.0020   0.012284  -0.000005   0.001360
 0.0367 -0.0020   0.012260  -0.000005   0.001289
 0.0400 -0.0020   0.012236  -0.000004   0.001219
 0.0433 -0.0020   0.012214  -0.000004   0.001149
 0.0467 -0.0020   0.012193  -0.000004   0.001079
 0.0500 -0.0020   0.012173  -0.000004   0.001010
 0.0533 -0.0020   0.012154  -0.000003   0.000940
 0.0567 -0.0020   0.012137  -0.000003   0.000870
 0.0600 -0.0020   0.012120  -0.000003   0.000801
 0.0633 -0.0020   0.012105  -0.000003   0.000731
 0.0667 -0.0020   0.012092  -0.000003   0.000661
 0.0700 -0.0020   0.012079  -0.000002   0.000592
 0.0733 -0.0020   0.012068  -0.000002   0.000522
 0.0767 -0.0020   0.012059  -0.000002   0.000453
 0.0800 -0.0020   0.012050  -0.000002   0.000384
 0.0833 -0.0020   0.012044  -0.000001   0.000314
 0.0867 -0.0020   0.012038  -0.000001   0.000245
 0.0900 -0.0020   0.012034  -0.000001   0.000175
 0.0933 -0.0020   0.012031  -0.000000   0.000106
 0.0967 -0.0020   0.012030  -0.000000   0.000036
 0.1000 -0.0020   0.012030   0.000000   0.000001
 0.0000 -0.0017   0.010000   0.000834   0.002063
 0.0033 -0.0017   0.012697   0.001062   0.002017
 0.0067 -0.0017   0.013177   0.000264   0.001931
 0.0100 -0.0017   0.013204   0.000038   0.001856
 0.0133 -0.0017   0.013177  -0.000000   0.001784
 0.0167 -0.0017   0.013145  -0.000005   0.001713
 0.0200 -0.0017   0.013114  -0.000005   0.001642
 0.0233 -0.0017   0.013084  -0.000005   0.001571
 0.0267 -0.0017   0.013055  -0.000004   0.001501
 0.0300 -0.0017   0.013028  -0.000004   0.001430
 0.0333 -0.0017   0.013001  -0.000004   0.001360
 0.0367 -0.0017   0.012975  -0.000004   0.001289
 0.0400 -0.0017   0.012950  -0.000004   0.001219
 0.0433 -0.0017   0.012926  -0.000004   0.001149
 0.0467 -0.0017   0.012904  -0.000003   0.001079
 0.0500 -0.0017   0.012883  -0.000003   0.001010
 0.0533 -0.0017   0.012863  -0.000003   0.000940
 0.0567 -0.0017   0.012844  -0.000003   0.000870
 0.0600 -0.0017   0.012827  -0.000003   0.000801
 0.0633 -0.0017   0.012811  -0.000002   0.000731
 0.0667 -0.0017   0.012796  -0.000002   0.000661
 0.0700 -0.0017   0.012783  -0.000002   0.000592
 0.0733 -0.0017   0.012771  -0.000002   0.000522
 0.0767 -0.0017   0.012761  -0.000002   0.000453
 0.0800 -0.0017   0.012752  -0.000001   0.000384
 0.0833 -0.0017   0.012745  -0.000001   0.000314
 0.0867 -0.0017   0.012739  -0.000001   0.000245
 0.0900 -0.0017   0.012734  -0.000001   0.000175
 0.0933 -0.0017   0.012731  -0.000001   0.000106
 0.0967 -0.0017   0.012730  -0.000000   0.000036
 0.1000 -0.0017   0.012730  -0.000000   0.000001
 0.0000 -0.0013   0.010000   0.000689   0.002061
 0.0033 -0.0013   0.013033   0.000885   0.002016
 0.0067 -0.0013   0.013720   0.000229   0.001932
 0.0100 -0.0013   0.013793   0.000034   0.001856
 0.0133 -0.0013   0.013771   0.000000   0.001784
 0.0167 -0.0013   0.013738  -0.000004   0.001713
 0.0200 -0.0013   0.013706  -0.000004   0.001642
 0.0233 -0.0013   0.013675  -0.000004   0.001571
 0.0267 -0.0013   0.013644  -0.000004   0.001501
 0.0300 -0.0013   0.013615  -0.000004   0.001430
 0.0333 -0.0013   0.013587  -0.000003   0.001360
 0.0367 -0.0013   0.013560  -0.000003   0.001289
 0.0400 -0.0013   0.013534  -0.000003   0.001219
 0.0433 -0.0013   0.013509  -0.000003   0.001149
 0.0467 -0.0013   0.013486  -0.000003   0.001079
 0.0500 -0.0013   0.013463  -0.000003   0.001010
 0.0533 -0.0013   0.013442  -0.000003   0.000940
 0.0567 -0.0013   0.013423  -0.000002   0.000870
 0.0600 -0.0013   0.013405  -0.000002   0.000801
 0.0633 -0.0013   0.013388  -0.000002   0.000731
 0.0667 -0.0013   0.013373  -0.000002   0.000661
 0.0700 -0.0013   0.013359  -0.000002   0.000592
 0.0733 -0.0013   0.013347  -0.000002   0.000522
 0.0767 -0.0013   0.013336  -0.000001   0.000453
 0.0800 -0.0013   0.013327  -0.000001   0.000384
 0.0833 -0.0013   0.013319  -0.000001   0.000314
 0.0867 -0.0013   0.013312  -0.000001   0.000245
 0.0900 -0.0013   0.013308  -0.000000   0.000175
 0.0933 -0.0013   0.013304  -0.000000   0.000106
 0.0967 -0.0013   0.013303  -0.000000   0.000036
 0.1000 -0.0013   0.013303   0.000000   0.000001
 0.0000 -0.0010   0.010000   0.000528   0.002059
 0.0033 -0.0010   0.013282   0.000685   0.002015
 0.0067 -0.0010   0.014138   0.000183   0.001932
 0.0100 -0.0010   0.014251   0.000028   0.001856
 0.0133 -0.0010   0.014233   0.000000   0.001784
 0.0167 -0.0010   0.014200  -0.000003   0.001713
 0.0200 -0.0010   0.014166  -0.000003   0.001642
 0.0233 -0.0010   0.014134  -0.000003   0.001571
 0.0267 -0.0010   0.014103  -0.000003   0.001501
 0.0300 -0.0010   0.014072  -0.000003   0.001430
 0.0333 -0.0010   0.014043  -0.000003   0.001360
 0.0367 -0.0010   0.014015  -0.000003   0.001289
 0.0400 -0.0010   0.013988  -0.000003   0.001219
 0.0433 -0.0010   0.013963  -0.000002   0.001149
 0.0467 -0.0010   0.013938  -0.000002   0.001079
 0.0500 -0.0010   0.013915  -0.000002   0.001010
 0.0533 -0.0010   0.013893  -0.000002   0.000940
 0.0567 -0.0010   0.013873  -0.000002   0.000870
 0.0600 -0.0010   0.013854  -0.000002   0.000801
 0.0633 -0.0010   0.013837  -0.000002   0.000731
 0.0667 -0.0010   0.013821  -0.000001   0.000661
 0.0700 -0.0010   0.013807  -0.000001   0.000592
 0.0733 -0.0010   0.013794  -0.000001   0.000522
 0.0767 -0.0010   0.013783  -0.000001   0.000453
 0.0800 -0.0010   0.013773  -0.000001   0.000384
 0.0833 -0.0010   0.013765  -0.000001   0.000314
 0.0867 -0.0010   0.013759  -0.000001   0.000245
 0.0900 -0.0010   0.013754  -0.000001   0.000175
 0.0933 -0.0010   0.013750  -0.000000   0.000106
 0.0967 -0.0010   0.013748  -0.000000   0.000036
 0.1000 -0.0010   0.013748  -0.000000   0.000001
 0.0000 -0.0007   0.010000   0.000358   0.002057
 0.0033 -0.0007   0.013453   0.000466   0.002014
 0.0067 -0.0007   0.014434   0.000127   0.001932
 0.0100 -0.0007   0.014577   0.000020   0.001856
 0.0133 -0.0007   0.014563   0.000000   0.001784
 0.0167 -0.0007   0.014529  -0.000002   0.001713
 0.0200 -0.0007   0.014495  -0.000002   0.001642
 0.0233 -0.0007   0.014462  -0.000002   0.001571
 0.0267 -0.0007   0.014430  -0.000002   0.001501
 0.0300 -0.0007   0.014399  -0.000002   0.001430
 0.0333 -0.0007   0.014369  -0.000002   0.001360
 0.0367 -0.0007   0.014340  -0.000002   0.001289
 0.0400 -0.0007   0.014313  -0.000002   0.001219
 0.0433 -0.0007   0.014286  -0.000002   0.001149
 0.0467 -0.0007   0.014261  -0.000002   0.001079
 0.0500 -0.0007   0.014238  -0.000001   0.001010
 0.0533 -0.0007   0.014216  -0.000001   0.000940
 0.0567 -0.0007   0.014195  -0.000001   0.000870
 0.0600 -0.0007   0.014176  -0.000001   0.000801
 0.0633 -0.0007   0.014158  -0.000001   0.000731
 0.0667 -0.0007   0.014142  -0.000001   0.000661
 0.0700 -0.0007   0.014127  -0.000001   0.000592
 0.0733 -0.0007   0.014114  -0.000001   0.000522
 0.0767 -0.0007   0.014102  -0.000001   0.000453
 0.0800 -0.0007   0.014092  -0.000001   0.000384
 0.0833 -0.0007   0.014084  -0.000001   0.000314
 0.0867 -0.0007   0.014077  -0.000000   0.000245
 0.0900 -0.0007   0.014072  -0.000000   0.000175
 0.0933 -0.0007   0.014069  -0.000000   0.000106
 0.0967 -0.0007   0.014067  -0.000000   0.000036
 0.1000 -0.0007   0.014067   0.000000   0.000001
 0.0000 -0.0003   0.010000   0.000181   0.002056
 0.0033 -0.0003   0.013553   0.000236   0.002014
 0.0067 -0.0003   0.014611   0.000065   0.001932
 0.0100 -0.0003   0.014772   0.000010   0.001856
 0.0133 -0.0003   0.014761   0.000000   0.001784
 0.0167 -0.0003   0.014727  -0.000001   0.001713
 0.0200 -0.0003   0.014692  -0.000001   0.001642
 0.0233 -0.0003   0.014659  -0.000001   0.001571
 0.0267 -0.0003   0.014626  -0.000001   0.001501
 0.0300 -0.0003   0.014595  -0.000001   0.001430
 0.0333 -0.0003   0.014564  -0.000001   0.001360
 0.0367 -0.0003   0.014535  -0.000001   0.001290
 0.0400 -0.0003   0.014507  -0.000001   0.001219
 0.0433 -0.0003   0.014481  -0.000001   0.001149
 0.0467 -0.0003   0.014455  -0.000001   0.001079
 0.0500 -0.0003   0.014431  -0.000001   0.001010
 0.0533 -0.0003   0.014409  -0.000001   0.000940
 0.0567 -0.0003   0.014388  -0.000001   0.000870
 0.0600 -0.0003   0.014368  -0.000001   0.000801
 0.0633 -0.0003   0.014350  -0.000001   0.000731
 0.0667 -0.0003   0.014334  -0.000001   0.000661
 0.0700 -0.0003   0.014319  -0.000000   0.000592
 0.0733 -0.0003   0.014306  -0.000000   0.000522
 0.0767 -0.0003   0.014294  -0.000000   0.000453
 0.0800 -0.0003   0.014284  -0.000000   0.000384
 0.0833 -0.0003   0.014275  -0.000000   0.000314
 0.0867 -0.0003   0.014268  -0.000000   0.000245
 0.0900 -0.0003   0.014263  -0.000000   0.000175
 0.0933 -0.0003   0.014260  -0.000000   0.000106
 0.0967 -0.0003   0.014258  -0.000000   0.000036
 0.1000 -0.0003   0.014258  -0.000000   0.000001
 0.0000  0.0000   0.010000   0.000000   0.002056
 0.0033  0.0000   0.013586  -0.000000   0.002014
 0.0067  0.0000   0.014669   0.000000   0.001932
 0.0100  0.0000   0.014837  -0.000000   0.001856
 0.0133  0.0000   0.014827   0.000000   0.001784
 0.0167  0.0000   0.014793   0.000000   0.001713
 0.0200  0.0000   0.014758   0.000000   0.001642
 0.0233  0.0000   0.014724  -0.000000   0.001571
 0.0267  0.0000   0.014692  -0.000000   0.001501
 0.0300  0.0000   0.014660   0.000000   0.001430
 0.0333  0.0000   0.014630  -0.000000   0.001360
 0.0367  0.0000   0.014600  -0.000000   0.001290
 0.0400  0.0000   0.014572   0.000000   0.001219
 0.0433  0.0000   0.014546  -0.000000   0.001149
 0.0467  0.0000   0.014520   0.000000   0.001079
 0.0500  0.0000   0.014496  -0.000000   0.001010
 0.0533  0.0000   0.014473  -0.000000   0.000940
 0.0567  0.0000   0.014452   0.000000   0.000870
 0.0600  0.0000   0.014433  -0.000000   0.000801
 0.0633  0.0000   0.014414  -0.000000   0.000731
 0.0667  0.0000   0.014398   0.000000   0.000661
 0.0700  0.0000   0.014383  -0.000000   0.000592
 0.0733  0.0000   0.014370  -0.000000   0.000522
 0.0767  0.0000   0.014358   0.000000   0.000453
 0.0800  0.0000   0.014348   0.000000   0.000384
 0.0833  0.0000   0.014339  -0.000000   0.000314
 0.0867  0.0000   0.014332  -0.000000   0.000245
 0.0900  0.0000   0.014327   0.000000   0.000175
 0.0933  0.0000   0.014323   0.000000   0.000106
 0.0967  0.0000   0.014321   0.000000   0.000036
 0.1000  0.0000   0.014321   0.000000   0.000001
 0.0000  0.0003   0.010000  -0.000181   0.002056
 0.0033  0.0003   0.013553  -0.000236   0.002014
 0.0067  0.0003   0.014611  -0.000065   0.001932
 0.0100  0.0003   0.014772  -0.000010   0.001856
 0.0133  0.0003   0.014761  -0.000000   0.001784
 0.0167  0.0003   0.014727   0.000001   0.001713
 0.0200  0.0003   0.014692   0.000001   0.001642
 0.0233  0.0003   0.014659   0.000001   0.001571
 0.0267  0.0003   0.014626   0.000001   0.001501
 0.0300  0.0003   0.014595   0.000001   0.001430
 0.0333  0.0003   0.014564   0.000001   0.001360
 0.0367  0.0003   0.014535   0.000001   0.001290
 0.0400  0.0003   0.014507   0.000001   0.001219
 0.0433  0.0003   0.014481   0.000001   0.001149
 0.0467  0.0003   0.014455   0.000001   0.001079
 0.0500  0.0003   0.014431   0.000001   0.001010
 0.0533  0.0003   0.014409   0.000001   0.000940
 0.0567  0.0003   0.014388   0.000001   0.000870
 0.0600  0.0003   0.014368   0.000001   0.000801
 0.0633  0.0003   0.014350   0.000001   0.000731
 0.0667  0.0003   0.014334   0.000001   0.000661
 0.0700  0.0003   0.014319   0.000000   0.000592
 0.0733  0.0003   0.014306   0.000000   0.000522
 0.0767  0.0003   0.014294   0.000000   0.000453
 0.0800  0.0003   0.014284   0.000000   0.000384
 0.0833  0.0003   0.014275   0.000000   0.000314
 0.0867  0.0003   0.014268   0.000000   0.000245
 0.0900  0.0003   0.014263  -0.000000   0.000175
 0.0933  0.0003   0.014260   0.000000   0.000106
 0.0967  0.0003   0.014258  -0.000000   0.000036
 0.1000  0.0003   0.014258  -0.000000   0.000001
 0.0000  0.0007   0.010000  -0.000358   0.002057
 0.0033  0.0007   0.013453  -0.000466   0.002014
 0.0067  0.0007   0.014434  -0.000127   0.001932
 0.0100  0.0007   0.014577  -0.000020   0.001856
 0.0133  0.0007   0.014563  -0.000000   0.001784
 0.0167  0.0007   0.014529   0.000002   0.001713
 0.0200  0.0007   0.014495   0.000002   0.001642
 0.0233  0.0007   0.014462   0.000002   0.001571
 0.0267  0.0007   0.014430   0.000002   0.001501
 0.0300  0.0007   0.014399   0.000002   0.001430
 0.0333  0.0007   0.014369   0.000002   0.001360
 0.0367  0.0007   0.014340   0.000002   0.001289
 0.0400  0.0007   0.014313   0.000002   0.001219
 0.0433  0.0007   0.014286   0.000002   0.001149
 0.0467  0.0007   0.014261   0.000002   0.001079
 0.0500  0.0007   0.014238   0.000001   0.001010
 0.0533  0.0007   0.014216   0.000001   0.000940
 0.0567  0.0007   0.014195   0.000001   0.000870
 0.0600  0.0007   0.014176   0.000001   0.000801
 0.0633  0.0007   0.014158   0.000001   0.000731
 0.0667  0.0007   0.014142   0.000001   0.000661
 0.0700  0.0007   0.014127   0.000001   0.000592
 0.0733  0.0007   0.014114   0.000001   0.000522
 0.0767  0.0007   0.014102   0.000001   0.000453
 0.0800  0.0007   0.014092   0.000001   0.000384
 0.0833  0.0007   0.014084   0.000000   0.000314
 0.0867  0.0007   0.014077   0.000000   0.000245
 0.0900  0.0007   0.014072   0.000001   0.000175
 0.0933  0.0007   0.014069   0.000000   0.000106
 0.0967  0.0007   0.014067   0.000000   0.000036
 0.1000  0.0007   0.014067   0.000000   0.000001
 0.0000  0.0010   0.010000  -0.000528   0.002059
 0.0033  0.0010   0.013282  -0.000685   0.002015
 0.0067  0.0010   0.014138  -0.000183   0.001932
 0.0100  0.0010   0.014251  -0.000028   0.001856
 0.0133  0.0010   0.014233  -0.000000   0.001784
 0.0167  0.0010   0.014200   0.000003   0.001713
 0.0200  0.0010   0.014166   0.000003   0.001642
 0.0233  0.0010   0.014134   0.000003   0.001571
 0.0267  0.0010   0.014103   0.000003   0.001501
 0.0300  0.0010   0.014072   0.000003   0.001430
 0.0333  0.0010   0.014043   0.000003   0.001360
 0.0367  0.0010   0.014015   0.000003   0.001289
 0.0400  0.0010   0.013988   0.000003   0.001219
 0.0433  0.0010   0.013963   0.000002   0.001149
 0.0467  0.0010   0.013938   0.000002   0.001079
 0.0500  0.0010   0.013915   0.000002   0.001010
 0.0533  0.0010   0.013893   0.000002   0.000940
 0.0567  0.0010   0.013873   0.000002   0.000870
 0.0600  0.0010   0.013854   0.000002   0.000801
 0.0633  0.0010   0.013837   0.000002   0.000731
 0.0667  0.0010   0.013821   0.000001   0.000661
 0.0700  0.0010   0.013807   0.000001   0.000592
 0.0733  0.0010   0.013794   0.000001   0.000522
 0.0767  0.0010   0.013783   0.000001   0.000453
 0.0800  0.0010   0.013773   0.000001   0.000384
 0.0833  0.0010   0.013765   0.000001   0.000314
 0.0867  0.0010   0.013759   0.000001   0.000245
 0.0900  0.0010   0.013754   0.000000   0.000175
 0.0933  0.0010   0.013750   0.000000   0.000106
 0.0967  0.0010   0.013748   0.000000   0.000036
 0.1000  0.0010   0.013748  -0.000000   0.000001
 0.0000  0.0013   0.010000  -0.000689   0.002061
 0.0033  0.0013   0.013033  -0.000885   0.002016
 0.0067  0.0013   0.013720  -0.000229   0.001932
 0.0100  0.0013   0.013793  -0.000034   0.001856
 0.0133  0.0013   0.013771  -0.000000   0.001784
 0.0167  0.0013   0.013738   0.000004   0.001713
 0.0200  0.0013   0.013706   0.000004   0.001642
 0.0233  0.0013   0.013675   0.000004   0.001571
 0.0267  0.0013   0.013644   0.000004   0.001501
 0.0300  0.0013   0.013615   0.000004   0.001430
 0.0333  0.0013   0.013587   0.000003   0.001360
 0.0367  0.0013   0.013560   0.000003   0.001289
 0.0400  0.0013   0.013534   0.000003   0.001219
 0.0433  0.0013   0.013509   0.000003   0.001149
 0.0467  0.0013   0.013486   0.000003   0.001079
 0.0500  0.0013   0.013463   0.000003   0.001010
 0.0533  0.0013   0.013442   0.000003   0.000940
 0.0567  0.0013   0.013423   0.000002   0.000870
 0.0600  0.0013   0.013405   0.000002   0.000801
 0.0633  0.0013   0.013388   0.000002   0.000731
 0.0667  0.0013   0.013373   0.000002   0.000661