TITLE = " Poseii Flow " 
 VARIABLES="x","y","u","v","p"
ZONE T="54559 " I =   31, J =   31 F = POINT
 0.0000 -0.0050   0.000000   0.000000   0.001659
 0.0033 -0.0050   0.000000   0.000000   0.002118
 0.0067 -0.0050   0.000000   0.000000   0.001987
 0.0100 -0.0050   0.000000   0.000000   0.001916
 0.0133 -0.0050   0.000000   0.000000   0.001844
 0.0167 -0.0050   0.000000   0.000000   0.001772
 0.0200 -0.0050   0.000000   0.000000   0.001700
 0.0233 -0.0050   0.000000   0.000000   0.001627
 0.0267 -0.0050   0.000000   0.000000   0.001555
 0.0300 -0.0050   0.000000   0.000000   0.001483
 0.0333 -0.0050   0.000000   0.000000   0.001410
 0.0367 -0.0050   0.000000   0.000000   0.001338
 0.0400 -0.0050   0.000000   0.000000   0.001266
 0.0433 -0.0050   0.000000   0.000000   0.001193
 0.0467 -0.0050   0.000000   0.000000   0.001121
 0.0500 -0.0050   0.000000   0.000000   0.001049
 0.0533 -0.0050   0.000000   0.000000   0.000977
 0.0567 -0.0050   0.000000   0.000000   0.000904
 0.0600 -0.0050   0.000000   0.000000   0.000832
 0.0633 -0.0050   0.000000   0.000000   0.000760
 0.0667 -0.0050   0.000000   0.000000   0.000688
 0.0700 -0.0050   0.000000   0.000000   0.000616
 0.0733 -0.0050   0.000000   0.000000   0.000543
 0.0767 -0.0050   0.000000   0.000000   0.000471
 0.0800 -0.0050   0.000000   0.000000   0.000399
 0.0833 -0.0050   0.000000   0.000000   0.000327
 0.0867 -0.0050   0.000000   0.000000   0.000255
 0.0900 -0.0050   0.000000   0.000000   0.000182
 0.0933 -0.0050   0.000000   0.000000   0.000110
 0.0967 -0.0050   0.000000   0.000000   0.000038
 0.1000 -0.0050   0.000000   0.000000   0.000001
 0.0000 -0.0047   0.010000   0.000430   0.002205
 0.0033 -0.0047   0.002573   0.000449   0.002115
 0.0067 -0.0047   0.001982   0.000020   0.001988
 0.0100 -0.0047   0.001929   0.000001   0.001916
 0.0133 -0.0047   0.001925  -0.000000   0.001844
 0.0167 -0.0047   0.001925  -0.000000   0.001772
 0.0200 -0.0047   0.001925  -0.000000   0.001700
 0.0233 -0.0047   0.001924  -0.000000   0.001627
 0.0267 -0.0047   0.001924  -0.000000   0.001555
 0.0300 -0.0047   0.001923  -0.000000   0.001483
 0.0333 -0.0047   0.001923  -0.000000   0.001410
 0.0367 -0.0047   0.001922  -0.000000   0.001338
 0.0400 -0.0047   0.001922  -0.000000   0.001266
 0.0433 -0.0047   0.001921  -0.000000   0.001193
 0.0467 -0.0047   0.001921  -0.000000   0.001121
 0.0500 -0.0047   0.001920  -0.000000   0.001049
 0.0533 -0.0047   0.001920  -0.000000   0.000977
 0.0567 -0.0047   0.001920  -0.000000   0.000904
 0.0600 -0.0047   0.001919  -0.000000   0.000832
 0.0633 -0.0047   0.001919  -0.000000   0.000760
 0.0667 -0.0047   0.001919  -0.000000   0.000688
 0.0700 -0.0047   0.001919  -0.000000   0.000616
 0.0733 -0.0047   0.001918  -0.000000   0.000543
 0.0767 -0.0047   0.001918  -0.000000   0.000471
 0.0800 -0.0047   0.001918  -0.000000   0.000399
 0.0833 -0.0047   0.001918   0.000000   0.000327
 0.0867 -0.0047   0.001918  -0.000000   0.000255
 0.0900 -0.0047   0.001918   0.000000   0.000182
 0.0933 -0.0047   0.001918  -0.000000   0.000110
 0.0967 -0.0047   0.001918  -0.000001   0.000038
 0.1000 -0.0047   0.001918  -0.000000   0.000001
 0.0000 -0.0043   0.010000   0.000742   0.002191
 0.0033 -0.0043   0.004714   0.000801   0.002109
 0.0067 -0.0043   0.003825   0.000064   0.001989
 0.0100 -0.0043   0.003727   0.000005   0.001916
 0.0133 -0.0043   0.003719  -0.000000   0.001844
 0.0167 -0.0043   0.003718  -0.000000   0.001772
 0.0200 -0.0043   0.003717  -0.000000   0.001700
 0.0233 -0.0043   0.003716  -0.000000   0.001627
 0.0267 -0.0043   0.003715  -0.000000   0.001555
 0.0300 -0.0043   0.003714  -0.000000   0.001483
 0.0333 -0.0043   0.003713  -0.000000   0.001410
 0.0367 -0.0043   0.003712  -0.000000   0.001338
 0.0400 -0.0043   0.003711  -0.000000   0.001266
 0.0433 -0.0043   0.003710  -0.000000   0.001193
 0.0467 -0.0043   0.003709  -0.000000   0.001121
 0.0500 -0.0043   0.003708  -0.000000   0.001049
 0.0533 -0.0043   0.003708  -0.000000   0.000977
 0.0567 -0.0043   0.003707  -0.000000   0.000904
 0.0600 -0.0043   0.003706  -0.000000   0.000832
 0.0633 -0.0043   0.003706  -0.000000   0.000760
 0.0667 -0.0043   0.003705  -0.000000   0.000688
 0.0700 -0.0043   0.003705  -0.000000   0.000616
 0.0733 -0.0043   0.003704  -0.000000   0.000543
 0.0767 -0.0043   0.003704  -0.000000   0.000471
 0.0800 -0.0043   0.003704  -0.000000   0.000399
 0.0833 -0.0043   0.003703  -0.000000   0.000327
 0.0867 -0.0043   0.003703   0.000000   0.000255
 0.0900 -0.0043   0.003703  -0.000000   0.000182
 0.0933 -0.0043   0.003703   0.000000   0.000110
 0.0967 -0.0043   0.003703   0.000001   0.000038
 0.1000 -0.0043   0.003703   0.000000   0.000001
 0.0000 -0.0040   0.010000   0.000958   0.002178
 0.0033 -0.0040   0.006496   0.001065   0.002103
 0.0067 -0.0040   0.005522   0.000118   0.001991
 0.0100 -0.0040   0.005393   0.000011   0.001916
 0.0133 -0.0040   0.005379   0.000000   0.001844
 0.0167 -0.0040   0.005378  -0.000001   0.001772
 0.0200 -0.0040   0.005376  -0.000001   0.001700
 0.0233 -0.0040   0.005375  -0.000001   0.001627
 0.0267 -0.0040   0.005373  -0.000001   0.001555
 0.0300 -0.0040   0.005372  -0.000000   0.001483
 0.0333 -0.0040   0.005370  -0.000000   0.001410
 0.0367 -0.0040   0.005369  -0.000000   0.001338
 0.0400 -0.0040   0.005368  -0.000000   0.001266
 0.0433 -0.0040   0.005366  -0.000000   0.001193
 0.0467 -0.0040   0.005365  -0.000000   0.001121
 0.0500 -0.0040   0.005364  -0.000000   0.001049
 0.0533 -0.0040   0.005363  -0.000000   0.000977
 0.0567 -0.0040   0.005362  -0.000000   0.000904
 0.0600 -0.0040   0.005361  -0.000000   0.000832
 0.0633 -0.0040   0.005360  -0.000000   0.000760
 0.0667 -0.0040   0.005359  -0.000000   0.000688
 0.0700 -0.0040   0.005359  -0.000000   0.000616
 0.0733 -0.0040   0.005358  -0.000000   0.000543
 0.0767 -0.0040   0.005358  -0.000000   0.000471
 0.0800 -0.0040   0.005357  -0.000000   0.000399
 0.0833 -0.0040   0.005357  -0.000000   0.000327
 0.0867 -0.0040   0.005357  -0.000000   0.000255
 0.0900 -0.0040   0.005356   0.000000   0.000182
 0.0933 -0.0040   0.005356  -0.000000   0.000110
 0.0967 -0.0040   0.005356  -0.000001   0.000038
 0.1000 -0.0040   0.005356  -0.000000   0.000001
 0.0000 -0.0037   0.010000   0.001092   0.002167
 0.0033 -0.0037   0.007979   0.001248   0.002098
 0.0067 -0.0037   0.007067   0.000173   0.001991
 0.0100 -0.0037   0.006924   0.000019   0.001917
 0.0133 -0.0037   0.006908   0.000001   0.001844
 0.0167 -0.0037   0.006905  -0.000001   0.001772
 0.0200 -0.0037   0.006903  -0.000001   0.001700
 0.0233 -0.0037   0.006901  -0.000001   0.001627
 0.0267 -0.0037   0.006899  -0.000001   0.001555
 0.0300 -0.0037   0.006897  -0.000001   0.001483
 0.0333 -0.0037   0.006895  -0.000001   0.001410
 0.0367 -0.0037   0.006894  -0.000001   0.001338
 0.0400 -0.0037   0.006892  -0.000001   0.001266
 0.0433 -0.0037   0.006890  -0.000001   0.001193
 0.0467 -0.0037   0.006889  -0.000000   0.001121
 0.0500 -0.0037   0.006887  -0.000000   0.001049
 0.0533 -0.0037   0.006886  -0.000000   0.000977
 0.0567 -0.0037   0.006885  -0.000000   0.000904
 0.0600 -0.0037   0.006883  -0.000000   0.000832
 0.0633 -0.0037   0.006882  -0.000000   0.000760
 0.0667 -0.0037   0.006881  -0.000000   0.000688
 0.0700 -0.0037   0.006881  -0.000000   0.000616
 0.0733 -0.0037   0.006880  -0.000000   0.000543
 0.0767 -0.0037   0.006879  -0.000000   0.000471
 0.0800 -0.0037   0.006878  -0.000000   0.000399
 0.0833 -0.0037   0.006878  -0.000000   0.000327
 0.0867 -0.0037   0.006878  -0.000000   0.000255
 0.0900 -0.0037   0.006877  -0.000000   0.000182
 0.0933 -0.0037   0.006877   0.000000   0.000110
 0.0967 -0.0037   0.006877   0.000000   0.000038
 0.1000 -0.0037   0.006877   0.000000   0.000001
 0.0000 -0.0033   0.010000   0.001160   0.002157
 0.0033 -0.0033   0.009209   0.001358   0.002094
 0.0067 -0.0033   0.008461   0.000223   0.001992
 0.0100 -0.0033   0.008321   0.000027   0.001917
 0.0133 -0.0033   0.008303   0.000001   0.001844
 0.0167 -0.0033   0.008300  -0.000001   0.001772
 0.0200 -0.0033   0.008298  -0.000001   0.001700
 0.0233 -0.0033   0.008295  -0.000001   0.001627
 0.0267 -0.0033   0.008293  -0.000001   0.001555
 0.0300 -0.0033   0.008290  -0.000001   0.001483
 0.0333 -0.0033   0.008288  -0.000001   0.001410
 0.0367 -0.0033   0.008286  -0.000001   0.001338
 0.0400 -0.0033   0.008284  -0.000001   0.001266
 0.0433 -0.0033   0.008282  -0.000001   0.001193
 0.0467 -0.0033   0.008280  -0.000001   0.001121
 0.0500 -0.0033   0.008278  -0.000001   0.001049
 0.0533 -0.0033   0.008277  -0.000000   0.000977
 0.0567 -0.0033   0.008275  -0.000000   0.000904
 0.0600 -0.0033   0.008274  -0.000000   0.000832
 0.0633 -0.0033   0.008272  -0.000000   0.000760
 0.0667 -0.0033   0.008271  -0.000000   0.000688
 0.0700 -0.0033   0.008270  -0.000000   0.000616
 0.0733 -0.0033   0.008269  -0.000000   0.000543
 0.0767 -0.0033   0.008268  -0.000000   0.000471
 0.0800 -0.0033   0.008267  -0.000000   0.000399
 0.0833 -0.0033   0.008267  -0.000000   0.000327
 0.0867 -0.0033   0.008266  -0.000000   0.000255
 0.0900 -0.0033   0.008266   0.000000   0.000182
 0.0933 -0.0033   0.008266  -0.000000   0.000110
 0.0967 -0.0033   0.008266  -0.000000   0.000038
 0.1000 -0.0033   0.008266   0.000000   0.000001
 0.0000 -0.0030   0.010000   0.001171   0.002149
 0.0033 -0.0030   0.010225   0.001402   0.002090
 0.0067 -0.0030   0.009703   0.000262   0.001993
 0.0100 -0.0030   0.009584   0.000034   0.001917
 0.0133 -0.0030   0.009566   0.000002   0.001844
 0.0167 -0.0030   0.009562  -0.000001   0.001772
 0.0200 -0.0030   0.009559  -0.000001   0.001700
 0.0233 -0.0030   0.009556  -0.000001   0.001627
 0.0267 -0.0030   0.009553  -0.000001   0.001555
 0.0300 -0.0030   0.009551  -0.000001   0.001483
 0.0333 -0.0030   0.009548  -0.000001   0.001410
 0.0367 -0.0030   0.009546  -0.000001   0.001338
 0.0400 -0.0030   0.009543  -0.000001   0.001266
 0.0433 -0.0030   0.009541  -0.000001   0.001193
 0.0467 -0.0030   0.009539  -0.000001   0.001121
 0.0500 -0.0030   0.009537  -0.000001   0.001049
 0.0533 -0.0030   0.009535  -0.000001   0.000977
 0.0567 -0.0030   0.009533  -0.000000   0.000904
 0.0600 -0.0030   0.009531  -0.000000   0.000832
 0.0633 -0.0030   0.009530  -0.000000   0.000760
 0.0667 -0.0030   0.009528  -0.000000   0.000688
 0.0700 -0.0030   0.009527  -0.000000   0.000616
 0.0733 -0.0030   0.009526  -0.000000   0.000543
 0.0767 -0.0030   0.009525  -0.000000   0.000471
 0.0800 -0.0030   0.009524  -0.000000   0.000399
 0.0833 -0.0030   0.009524  -0.000000   0.000327
 0.0867 -0.0030   0.009523  -0.000000   0.000255
 0.0900 -0.0030   0.009523  -0.000000   0.000182
 0.0933 -0.0030   0.009522   0.000000   0.000110
 0.0967 -0.0030   0.009522   0.000000   0.000038
 0.1000 -0.0030   0.009522  -0.000000   0.000001
 0.0000 -0.0027   0.010000   0.001137   0.002142
 0.0033 -0.0027   0.011061   0.001387   0.002087
 0.0067 -0.0027   0.010797   0.000286   0.001993
 0.0100 -0.0027   0.010711   0.000040   0.001917
 0.0133 -0.0027   0.010696   0.000003   0.001844
 0.0167 -0.0027   0.010691  -0.000001   0.001772
 0.0200 -0.0027   0.010688  -0.000001   0.001700
 0.0233 -0.0027   0.010685  -0.000001   0.001627
 0.0267 -0.0027   0.010682  -0.000001   0.001555
 0.0300 -0.0027   0.010678  -0.000001   0.001483
 0.0333 -0.0027   0.010676  -0.000001   0.001410
 0.0367 -0.0027   0.010673  -0.000001   0.001338
 0.0400 -0.0027   0.010670  -0.000001   0.001266
 0.0433 -0.0027   0.010667  -0.000001   0.001193
 0.0467 -0.0027   0.010665  -0.000001   0.001121
 0.0500 -0.0027   0.010663  -0.000001   0.001049
 0.0533 -0.0027   0.010661  -0.000001   0.000977
 0.0567 -0.0027   0.010659  -0.000000   0.000904
 0.0600 -0.0027   0.010657  -0.000000   0.000832
 0.0633 -0.0027   0.010655  -0.000000   0.000760
 0.0667 -0.0027   0.010653  -0.000000   0.000688
 0.0700 -0.0027   0.010652  -0.000000   0.000616
 0.0733 -0.0027   0.010651  -0.000000   0.000543
 0.0767 -0.0027   0.010650  -0.000000   0.000471
 0.0800 -0.0027   0.010649  -0.000000   0.000399
 0.0833 -0.0027   0.010648  -0.000000   0.000327
 0.0867 -0.0027   0.010647  -0.000000   0.000255
 0.0900 -0.0027   0.010647   0.000000   0.000182
 0.0933 -0.0027   0.010647  -0.000000   0.000110
 0.0967 -0.0027   0.010646  -0.000000   0.000038
 0.1000 -0.0027   0.010646   0.000000   0.000001
 0.0000 -0.0023   0.010000   0.001065   0.002136
 0.0033 -0.0023   0.011741   0.001321   0.002085
 0.0067 -0.0023   0.011746   0.000296   0.001994
 0.0100 -0.0023   0.011704   0.000043   0.001917
 0.0133 -0.0023   0.011692   0.000004   0.001844
 0.0167 -0.0023   0.011688  -0.000001   0.001772
 0.0200 -0.0023   0.011684  -0.000001   0.001700
 0.0233 -0.0023   0.011680  -0.000001   0.001627
 0.0267 -0.0023   0.011677  -0.000001   0.001555
 0.0300 -0.0023   0.011674  -0.000001   0.001483
 0.0333 -0.0023   0.011670  -0.000001   0.001410
 0.0367 -0.0023   0.011667  -0.000001   0.001338
 0.0400 -0.0023   0.011664  -0.000001   0.001266
 0.0433 -0.0023   0.011662  -0.000001   0.001193
 0.0467 -0.0023   0.011659  -0.000001   0.001121
 0.0500 -0.0023   0.011656  -0.000001   0.001049
 0.0533 -0.0023   0.011654  -0.000001   0.000977
 0.0567 -0.0023   0.011652  -0.000000   0.000904
 0.0600 -0.0023   0.011650  -0.000000   0.000832
 0.0633 -0.0023   0.011648  -0.000000   0.000760
 0.0667 -0.0023   0.011646  -0.000000   0.000688
 0.0700 -0.0023   0.011644  -0.000000   0.000616
 0.0733 -0.0023   0.011643  -0.000000   0.000543
 0.0767 -0.0023   0.011642  -0.000000   0.000471
 0.0800 -0.0023   0.011641  -0.000000   0.000399
 0.0833 -0.0023   0.011640  -0.000000   0.000327
 0.0867 -0.0023   0.011639  -0.000000   0.000255
 0.0900 -0.0023   0.011639  -0.000000   0.000182
 0.0933 -0.0023   0.011638   0.000000   0.000110
 0.0967 -0.0023   0.011638   0.000000   0.000038
 0.1000 -0.0023   0.011638  -0.000000   0.000001
 0.0000 -0.0020   0.010000   0.000962   0.002132
 0.0033 -0.0020   0.012289   0.001212   0.002083
 0.0067 -0.0020   0.012556   0.000289   0.001994
 0.0100 -0.0020   0.012562   0.000044   0.001917
 0.0133 -0.0020   0.012556   0.000004   0.001844
 0.0167 -0.0020   0.012551  -0.000001   0.001772
 0.0200 -0.0020   0.012547  -0.000001   0.001700
 0.0233 -0.0020   0.012543  -0.000001   0.001627
 0.0267 -0.0020   0.012540  -0.000001   0.001555
 0.0300 -0.0020   0.012536  -0.000001   0.001483
 0.0333 -0.0020   0.012533  -0.000001   0.001410
 0.0367 -0.0020   0.012529  -0.000001   0.001338
 0.0400 -0.0020   0.012526  -0.000001   0.001266
 0.0433 -0.0020   0.012523  -0.000001   0.001193
 0.0467 -0.0020   0.012520  -0.000001   0.001121
 0.0500 -0.0020   0.012517  -0.000001   0.001049
 0.0533 -0.0020   0.012515  -0.000000   0.000977
 0.0567 -0.0020   0.012513  -0.000000   0.000904
 0.0600 -0.0020   0.012510  -0.000000   0.000832
 0.0633 -0.0020   0.012508  -0.000000   0.000760
 0.0667 -0.0020   0.012506  -0.000000   0.000688
 0.0700 -0.0020   0.012505  -0.000000   0.000616
 0.0733 -0.0020   0.012503  -0.000000   0.000543
 0.0767 -0.0020   0.012502  -0.000000   0.000471
 0.0800 -0.0020   0.012501  -0.000000   0.000399
 0.0833 -0.0020   0.012500  -0.000000   0.000327
 0.0867 -0.0020   0.012499  -0.000000   0.000255
 0.0900 -0.0020   0.012499   0.000000   0.000182
 0.0933 -0.0020   0.012498  -0.000000   0.000110
 0.0967 -0.0020   0.012498  -0.000000   0.000038
 0.1000 -0.0020   0.012498   0.000000   0.000001
 0.0000 -0.0017   0.010000   0.000836   0.002128
 0.0033 -0.0017   0.012724   0.001065   0.002081
 0.0067 -0.0017   0.013231   0.000268   0.001994
 0.0100 -0.0017   0.013287   0.000043   0.001918
 0.0133 -0.0017   0.013287   0.000004   0.001845
 0.0167 -0.0017   0.013282  -0.000001   0.001772
 0.0200 -0.0017   0.013278  -0.000001   0.001700
 0.0233 -0.0017   0.013274  -0.000001   0.001627
 0.0267 -0.0017   0.013270  -0.000001   0.001555
 0.0300 -0.0017   0.013266  -0.000001   0.001483
 0.0333 -0.0017   0.013262  -0.000001   0.001410
 0.0367 -0.0017   0.013259  -0.000001   0.001338
 0.0400 -0.0017   0.013255  -0.000001   0.001266
 0.0433 -0.0017   0.013252  -0.000001   0.001193
 0.0467 -0.0017   0.013249  -0.000000   0.001121
 0.0500 -0.0017   0.013246  -0.000000   0.001049
 0.0533 -0.0017   0.013243  -0.000000   0.000977
 0.0567 -0.0017   0.013241  -0.000000   0.000904
 0.0600 -0.0017   0.013239  -0.000000   0.000832
 0.0633 -0.0017   0.013236  -0.000000   0.000760
 0.0667 -0.0017   0.013234  -0.000000   0.000688
 0.0700 -0.0017   0.013233  -0.000000   0.000616
 0.0733 -0.0017   0.013231  -0.000000   0.000543
 0.0767 -0.0017   0.013230  -0.000000   0.000471
 0.0800 -0.0017   0.013228  -0.000000   0.000399
 0.0833 -0.0017   0.013227  -0.000000   0.000327
 0.0867 -0.0017   0.013227  -0.000000   0.000255
 0.0900 -0.0017   0.013226  -0.000000   0.000182
 0.0933 -0.0017   0.013226   0.000000   0.000110
 0.0967 -0.0017   0.013225   0.000000   0.000038
 0.1000 -0.0017   0.013225  -0.000000   0.000001
 0.0000 -0.0013   0.010000   0.000690   0.002125
 0.0033 -0.0013   0.013060   0.000888   0.002080
 0.0067 -0.0013   0.013776   0.000232   0.001995
 0.0100 -0.0013   0.013878   0.000038   0.001918
 0.0133 -0.0013   0.013885   0.000004   0.001845
 0.0167 -0.0013   0.013880  -0.000000   0.001772
 0.0200 -0.0013   0.013876  -0.000001   0.001700
 0.0233 -0.0013   0.013871  -0.000001   0.001627
 0.0267 -0.0013   0.013867  -0.000001   0.001555
 0.0300 -0.0013   0.013863  -0.000000   0.001483
 0.0333 -0.0013   0.013859  -0.000000   0.001410
 0.0367 -0.0013   0.013856  -0.000000   0.001338
 0.0400 -0.0013   0.013852  -0.000000   0.001266
 0.0433 -0.0013   0.013849  -0.000000   0.001193
 0.0467 -0.0013   0.013845  -0.000000   0.001121
 0.0500 -0.0013   0.013842  -0.000000   0.001049
 0.0533 -0.0013   0.013840  -0.000000   0.000977
 0.0567 -0.0013   0.013837  -0.000000   0.000904
 0.0600 -0.0013   0.013834  -0.000000   0.000832
 0.0633 -0.0013   0.013832  -0.000000   0.000760
 0.0667 -0.0013   0.013830  -0.000000   0.000688
 0.0700 -0.0013   0.013828  -0.000000   0.000616
 0.0733 -0.0013   0.013826  -0.000000   0.000543
 0.0767 -0.0013   0.013825  -0.000000   0.000471
 0.0800 -0.0013   0.013824  -0.000000   0.000399
 0.0833 -0.0013   0.013823  -0.000000   0.000327
 0.0867 -0.0013   0.013822  -0.000000   0.000255
 0.0900 -0.0013   0.013821   0.000000   0.000182
 0.0933 -0.0013   0.013821  -0.000000   0.000110
 0.0967 -0.0013   0.013820  -0.000000   0.000038
 0.1000 -0.0013   0.013820   0.000000   0.000001
 0.0000 -0.0010   0.010000   0.000529   0.002123
 0.0033 -0.0010   0.013309   0.000687   0.002079
 0.0067 -0.0010   0.014195   0.000185   0.001995
 0.0100 -0.0010   0.014337   0.000031   0.001918
 0.0133 -0.0010   0.014349   0.000003   0.001845
 0.0167 -0.0010   0.014345  -0.000000   0.001772
 0.0200 -0.0010   0.014341  -0.000000   0.001700
 0.0233 -0.0010   0.014336  -0.000000   0.001627
 0.0267 -0.0010   0.014332  -0.000000   0.001555
 0.0300 -0.0010   0.014328  -0.000000   0.001483
 0.0333 -0.0010   0.014324  -0.000000   0.001410
 0.0367 -0.0010   0.014320  -0.000000   0.001338
 0.0400 -0.0010   0.014316  -0.000000   0.001266
 0.0433 -0.0010   0.014313  -0.000000   0.001193
 0.0467 -0.0010   0.014309  -0.000000   0.001121
 0.0500 -0.0010   0.014306  -0.000000   0.001049
 0.0533 -0.0010   0.014303  -0.000000   0.000977
 0.0567 -0.0010   0.014300  -0.000000   0.000904
 0.0600 -0.0010   0.014298  -0.000000   0.000832
 0.0633 -0.0010   0.014295  -0.000000   0.000760
 0.0667 -0.0010   0.014293  -0.000000   0.000688
 0.0700 -0.0010   0.014291  -0.000000   0.000616
 0.0733 -0.0010   0.014290  -0.000000   0.000543
 0.0767 -0.0010   0.014288  -0.000000   0.000471
 0.0800 -0.0010   0.014287  -0.000000   0.000399
 0.0833 -0.0010   0.014286  -0.000000   0.000327
 0.0867 -0.0010   0.014285   0.000000   0.000255
 0.0900 -0.0010   0.014284  -0.000000   0.000182
 0.0933 -0.0010   0.014284   0.000000   0.000110
 0.0967 -0.0010   0.014283   0.000000   0.000038
 0.1000 -0.0010   0.014283  -0.000000   0.000001
 0.0000 -0.0007   0.010000   0.000358   0.002122
 0.0033 -0.0007   0.013480   0.000468   0.002079
 0.0067 -0.0007   0.014491   0.000129   0.001995
 0.0100 -0.0007   0.014665   0.000022   0.001918
 0.0133 -0.0007   0.014681   0.000002   0.001845
 0.0167 -0.0007   0.014678  -0.000000   0.001772
 0.0200 -0.0007   0.014673  -0.000000   0.001700
 0.0233 -0.0007   0.014668  -0.000000   0.001627
 0.0267 -0.0007   0.014664  -0.000000   0.001555
 0.0300 -0.0007   0.014659  -0.000000   0.001483
 0.0333 -0.0007   0.014655  -0.000000   0.001410
 0.0367 -0.0007   0.014651  -0.000000   0.001338
 0.0400 -0.0007   0.014648  -0.000000   0.001266
 0.0433 -0.0007   0.014644  -0.000000   0.001193
 0.0467 -0.0007   0.014641  -0.000000   0.001121
 0.0500 -0.0007   0.014637  -0.000000   0.001049
 0.0533 -0.0007   0.014634  -0.000000   0.000977
 0.0567 -0.0007   0.014632  -0.000000   0.000904
 0.0600 -0.0007   0.014629  -0.000000   0.000832
 0.0633 -0.0007   0.014626  -0.000000   0.000760
 0.0667 -0.0007   0.014624  -0.000000   0.000688
 0.0700 -0.0007   0.014622  -0.000000   0.000616
 0.0733 -0.0007   0.014620  -0.000000   0.000543
 0.0767 -0.0007   0.014619  -0.000000   0.000471
 0.0800 -0.0007   0.014618  -0.000000   0.000399
 0.0833 -0.0007   0.014616  -0.000000   0.000327
 0.0867 -0.0007   0.014615  -0.000000   0.000255
 0.0900 -0.0007   0.014615   0.000000   0.000182
 0.0933 -0.0007   0.014614  -0.000000   0.000110
 0.0967 -0.0007   0.014614  -0.000000   0.000038
 0.1000 -0.0007   0.014614   0.000000   0.000001
 0.0000 -0.0003   0.010000   0.000181   0.002121
 0.0033 -0.0003   0.013580   0.000237   0.002078
 0.0067 -0.0003   0.014668   0.000066   0.001995
 0.0100 -0.0003   0.014861   0.000011   0.001918
 0.0133 -0.0003   0.014880   0.000001   0.001845
 0.0167 -0.0003   0.014877  -0.000000   0.001772
 0.0200 -0.0003   0.014872  -0.000000   0.001700
 0.0233 -0.0003   0.014867  -0.000000   0.001627
 0.0267 -0.0003   0.014863  -0.000000   0.001555
 0.0300 -0.0003   0.014858  -0.000000   0.001483
 0.0333 -0.0003   0.014854  -0.000000   0.001410
 0.0367 -0.0003   0.014850  -0.000000   0.001338
 0.0400 -0.0003   0.014846  -0.000000   0.001266
 0.0433 -0.0003   0.014843  -0.000000   0.001193
 0.0467 -0.0003   0.014839  -0.000000   0.001121
 0.0500 -0.0003   0.014836  -0.000000   0.001049
 0.0533 -0.0003   0.014833  -0.000000   0.000977
 0.0567 -0.0003   0.014830  -0.000000   0.000904
 0.0600 -0.0003   0.014828  -0.000000   0.000832
 0.0633 -0.0003   0.014825  -0.000000   0.000760
 0.0667 -0.0003   0.014823  -0.000000   0.000688
 0.0700 -0.0003   0.014821  -0.000000   0.000616
 0.0733 -0.0003   0.014819  -0.000000   0.000543
 0.0767 -0.0003   0.014817  -0.000000   0.000471
 0.0800 -0.0003   0.014816  -0.000000   0.000399
 0.0833 -0.0003   0.014815  -0.000000   0.000327
 0.0867 -0.0003   0.014814   0.000000   0.000255
 0.0900 -0.0003   0.014813  -0.000000   0.000182
 0.0933 -0.0003   0.014813   0.000000   0.000110
 0.0967 -0.0003   0.014812   0.000000   0.000038
 0.1000 -0.0003   0.014812  -0.000000   0.000001
 0.0000  0.0000   0.010000  -0.000000   0.002121
 0.0033  0.0000   0.013613   0.000000   0.002078
 0.0067  0.0000   0.014727  -0.000000   0.001995
 0.0100  0.0000   0.014926  -0.000000   0.001918
 0.0133  0.0000   0.014947  -0.000000   0.001845
 0.0167  0.0000   0.014943   0.000000   0.001772
 0.0200  0.0000   0.014938  -0.000000   0.001700
 0.0233  0.0000   0.014934   0.000000   0.001627
 0.0267  0.0000   0.014929  -0.000000   0.001555
 0.0300  0.0000   0.014925   0.000000   0.001483
 0.0333  0.0000   0.014921  -0.000000   0.001410
 0.0367  0.0000   0.014917   0.000000   0.001338
 0.0400  0.0000   0.014913  -0.000000   0.001266
 0.0433  0.0000   0.014909   0.000000   0.001193
 0.0467  0.0000   0.014906   0.000000   0.001121
 0.0500  0.0000   0.014902  -0.000000   0.001049
 0.0533  0.0000   0.014899   0.000000   0.000977
 0.0567  0.0000   0.014896  -0.000000   0.000904
 0.0600  0.0000   0.014894   0.000000   0.000832
 0.0633  0.0000   0.014891  -0.000000   0.000760
 0.0667  0.0000   0.014889   0.000000   0.000688
 0.0700  0.0000   0.014887  -0.000000   0.000616
 0.0733  0.0000   0.014885  -0.000000   0.000543
 0.0767  0.0000   0.014884   0.000000   0.000471
 0.0800  0.0000   0.014882  -0.000000   0.000399
 0.0833  0.0000   0.014881   0.000000   0.000327
 0.0867  0.0000   0.014880  -0.000000   0.000255
 0.0900  0.0000   0.014879   0.000000   0.000182
 0.0933  0.0000   0.014879  -0.000000   0.000110
 0.0967  0.0000   0.014879  -0.000000   0.000038
 0.1000  0.0000   0.014879   0.000000   0.000001
 0.0000  0.0003   0.010000  -0.000181   0.002121
 0.0033  0.0003   0.013580  -0.000237   0.002078
 0.0067  0.0003   0.014668  -0.000066   0.001995
 0.0100  0.0003   0.014861  -0.000011   0.001918
 0.0133  0.0003   0.014880  -0.000001   0.001845
 0.0167  0.0003   0.014877   0.000000   0.001772
 0.0200  0.0003   0.014872   0.000000   0.001700
 0.0233  0.0003   0.014867   0.000000   0.001627
 0.0267  0.0003   0.014863   0.000000   0.001555
 0.0300  0.0003   0.014858   0.000000   0.001483
 0.0333  0.0003   0.014854   0.000000   0.001410
 0.0367  0.0003   0.014850   0.000000   0.001338
 0.0400  0.0003   0.014846   0.000000   0.001266
 0.0433  0.0003   0.014843   0.000000   0.001193
 0.0467  0.0003   0.014839   0.000000   0.001121
 0.0500  0.0003   0.014836   0.000000   0.001049
 0.0533  0.0003   0.014833   0.000000   0.000977
 0.0567  0.0003   0.014830   0.000000   0.000904
 0.0600  0.0003   0.014828   0.000000   0.000832
 0.0633  0.0003   0.014825   0.000000   0.000760
 0.0667  0.0003   0.014823   0.000000   0.000688
 0.0700  0.0003   0.014821   0.000000   0.000616
 0.0733  0.0003   0.014819   0.000000   0.000543
 0.0767  0.0003   0.014817   0.000000   0.000471
 0.0800  0.0003   0.014816   0.000000   0.000399
 0.0833  0.0003   0.014815  -0.000000   0.000327
 0.0867  0.0003   0.014814   0.000000   0.000255
 0.0900  0.0003   0.014813  -0.000000   0.000182
 0.0933  0.0003   0.014813   0.000000   0.000110
 0.0967  0.0003   0.014812   0.000000   0.000038
 0.1000  0.0003   0.014812  -0.000000   0.000001
 0.0000  0.0007   0.010000  -0.000358   0.002122
 0.0033  0.0007   0.013480  -0.000468   0.002079
 0.0067  0.0007   0.014491  -0.000129   0.001995
 0.0100  0.0007   0.014665  -0.000022   0.001918
 0.0133  0.0007   0.014681  -0.000002   0.001845
 0.0167  0.0007   0.014678   0.000000   0.001772
 0.0200  0.0007   0.014673   0.000000   0.001700
 0.0233  0.0007   0.014668   0.000000   0.001627
 0.0267  0.0007   0.014664   0.000000   0.001555
 0.0300  0.0007   0.014659   0.000000   0.001483
 0.0333  0.0007   0.014655   0.000000   0.001410
 0.0367  0.0007   0.014651   0.000000   0.001338
 0.0400  0.0007   0.014648   0.000000   0.001266
 0.0433  0.0007   0.014644   0.000000   0.001193
 0.0467  0.0007   0.014641   0.000000   0.001121
 0.0500  0.0007   0.014637   0.000000   0.001049
 0.0533  0.0007   0.014634   0.000000   0.000977
 0.0567  0.0007   0.014632   0.000000   0.000904
 0.0600  0.0007   0.014629   0.000000   0.000832
 0.0633  0.0007   0.014626   0.000000   0.000760
 0.0667  0.0007   0.014624   0.000000   0.000688
 0.0700  0.0007   0.014622   0.000000   0.000616
 0.0733  0.0007   0.014620   0.000000   0.000543
 0.0767  0.0007   0.014619   0.000000   0.000471
 0.0800  0.0007   0.014618   0.000000   0.000399
 0.0833  0.0007   0.014616   0.000000   0.000327
 0.0867  0.0007   0.014615  -0.000000   0.000255
 0.0900  0.0007   0.014615   0.000000   0.000182
 0.0933  0.0007   0.014614  -0.000000   0.000110
 0.0967  0.0007   0.014614  -0.000000   0.000038
 0.1000  0.0007   0.014614   0.000000   0.000001
 0.0000  0.0010   0.010000  -0.000529   0.002123
 0.0033  0.0010   0.013309  -0.000687   0.002079
 0.0067  0.0010   0.014195  -0.000185   0.001995
 0.0100  0.0010   0.014337  -0.000031   0.001918
 0.0133  0.0010   0.014349  -0.000003   0.001845
 0.0167  0.0010   0.014345   0.000000   0.001772
 0.0200  0.0010   0.014341   0.000000   0.001700
 0.0233  0.0010   0.014336   0.000000   0.001627
 0.0267  0.0010   0.014332   0.000000   0.001555
 0.0300  0.0010   0.014328   0.000000   0.001483
 0.0333  0.0010   0.014324   0.000000   0.001410
 0.0367  0.0010   0.014320   0.000000   0.001338
 0.0400  0.0010   0.014316   0.000000   0.001266
 0.0433  0.0010   0.014313   0.000000   0.001193
 0.0467  0.0010   0.014309   0.000000   0.001121
 0.0500  0.0010   0.014306   0.000000   0.001049
 0.0533  0.0010   0.014303   0.000000   0.000977
 0.0567  0.0010   0.014300   0.000000   0.000904
 0.0600  0.0010   0.014298   0.000000   0.000832
 0.0633  0.0010   0.014295   0.000000   0.000760
 0.0667  0.0010   0.014293   0.000000   0.000688
 0.0700  0.0010   0.014291   0.000000   0.000616
 0.0733  0.0010   0.014290   0.000000   0.000543
 0.0767  0.0010   0.014288   0.000000   0.000471
 0.0800  0.0010   0.014287   0.000000   0.000399
 0.0833  0.0010   0.014286   0.000000   0.000327
 0.0867  0.0010   0.014285   0.000000   0.000255
 0.0900  0.0010   0.014284  -0.000000   0.000182
 0.0933  0.0010   0.014284   0.000000   0.000110
 0.0967  0.0010   0.014283   0.000000   0.000038
 0.1000  0.0010   0.014283  -0.000000   0.000001
 0.0000  0.0013   0.010000  -0.000690   0.002125
 0.0033  0.0013   0.013060  -0.000888   0.002080
 0.0067  0.0013   0.013776  -0.000232   0.001995
 0.0100  0.0013   0.013878  -0.000038   0.001918
 0.0133  0.0013   0.013885  -0.000004   0.001845
 0.0167  0.0013   0.013880   0.000000   0.001772
 0.0200  0.0013   0.013876   0.000001   0.001700
 0.0233  0.0013   0.013871   0.000001   0.001627
 0.0267  0.0013   0.013867   0.000001   0.001555
 0.0300  0.0013   0.013863   0.000000   0.001483
 0.0333  0.0013   0.013859   0.000000   0.001410
 0.0367  0.0013   0.013856   0.000000   0.001338
 0.0400  0.0013   0.013852   0.000000   0.001266
 0.0433  0.0013   0.013849   0.000000   0.001193
 0.0467  0.0013   0.013845   0.000000   0.001121
 0.0500  0.0013   0.013842   0.000000   0.001049
 0.0533  0.0013   0.013840   0.000000   0.000977
 0.0567  0.0013   0.013837   0.000000   0.000904
 0.0600  0.0013   0.013834   0.000000   0.000832
 0.0633  0.0013   0.013832   0.000000   0.000760
 0.0667  0.0013   0.013830   0.000000   0.000688